# vtk DataFile Version 3.0
#This file was generated by the deal.II library on 2015/6/9 at 16: 0: 5
ASCII
DATASET UNSTRUCTURED_GRID

POINTS 260 double
0 0 0
0.006 0 0
0 0.00615385 0
0.006 0.00615385 0
0.006 0 0
0.012 0 0
0.006 0.00615385 0
0.012 0.00615385 0
0.012 0 0
0.018 0 0
0.012 0.00615385 0
0.018 0.00615385 0
0.018 0 0
0.024 0 0
0.018 0.00615385 0
0.024 0.00615385 0
0.024 0 0
0.03 0 0
0.024 0.00615385 0
0.03 0.00615385 0
0 0.00615385 0
0.006 0.00615385 0
0 0.0123077 0
0.006 0.0123077 0
0.006 0.00615385 0
0.012 0.00615385 0
0.006 0.0123077 0
0.012 0.0123077 0
0.012 0.00615385 0
0.018 0.00615385 0
0.012 0.0123077 0
0.018 0.0123077 0
0.018 0.00615385 0
0.024 0.00615385 0
0.018 0.0123077 0
0.024 0.0123077 0
0.024 0.00615385 0
0.03 0.00615385 0
0.024 0.0123077 0
0.03 0.0123077 0
0 0.0123077 0
0.006 0.0123077 0
0 0.0184615 0
0.006 0.0184615 0
0.006 0.0123077 0
0.012 0.0123077 0
0.006 0.0184615 0
0.012 0.0184615 0
0.012 0.0123077 0
0.018 0.0123077 0
0.012 0.0184615 0
0.018 0.0184615 0
0.018 0.0123077 0
0.024 0.0123077 0
0.018 0.0184615 0
0.024 0.0184615 0
0.024 0.0123077 0
0.03 0.0123077 0
0.024 0.0184615 0
0.03 0.0184615 0
0 0.0184615 0
0.006 0.0184615 0
0 0.0246154 0
0.006 0.0246154 0
0.006 0.0184615 0
0.012 0.0184615 0
0.006 0.0246154 0
0.012 0.0246154 0
0.012 0.0184615 0
0.018 0.0184615 0
0.012 0.0246154 0
0.018 0.0246154 0
0.018 0.0184615 0
0.024 0.0184615 0
0.018 0.0246154 0
0.024 0.0246154 0
0.024 0.0184615 0
0.03 0.0184615 0
0.024 0.0246154 0
0.03 0.0246154 0
0 0.0246154 0
0.006 0.0246154 0
0 0.0307692 0
0.006 0.0307692 0
0.006 0.0246154 0
0.012 0.0246154 0
0.006 0.0307692 0
0.012 0.0307692 0
0.012 0.0246154 0
0.018 0.0246154 0
0.012 0.0307692 0
0.018 0.0307692 0
0.018 0.0246154 0
0.024 0.0246154 0
0.018 0.0307692 0
0.024 0.0307692 0
0.024 0.0246154 0
0.03 0.0246154 0
0.024 0.0307692 0
0.03 0.0307692 0
0 0.0307692 0
0.006 0.0307692 0
0 0.0369231 0
0.006 0.0369231 0
0.006 0.0307692 0
0.012 0.0307692 0
0.006 0.0369231 0
0.012 0.0369231 0
0.012 0.0307692 0
0.018 0.0307692 0
0.012 0.0369231 0
0.018 0.0369231 0
0.018 0.0307692 0
0.024 0.0307692 0
0.018 0.0369231 0
0.024 0.0369231 0
0.024 0.0307692 0
0.03 0.0307692 0
0.024 0.0369231 0
0.03 0.0369231 0
0 0.0369231 0
0.006 0.0369231 0
0 0.0430769 0
0.006 0.0430769 0
0.006 0.0369231 0
0.012 0.0369231 0
0.006 0.0430769 0
0.012 0.0430769 0
0.012 0.0369231 0
0.018 0.0369231 0
0.012 0.0430769 0
0.018 0.0430769 0
0.018 0.0369231 0
0.024 0.0369231 0
0.018 0.0430769 0
0.024 0.0430769 0
0.024 0.0369231 0
0.03 0.0369231 0
0.024 0.0430769 0
0.03 0.0430769 0
0 0.0430769 0
0.006 0.0430769 0
0 0.0492308 0
0.006 0.0492308 0
0.006 0.0430769 0
0.012 0.0430769 0
0.006 0.0492308 0
0.012 0.0492308 0
0.012 0.0430769 0
0.018 0.0430769 0
0.012 0.0492308 0
0.018 0.0492308 0
0.018 0.0430769 0
0.024 0.0430769 0
0.018 0.0492308 0
0.024 0.0492308 0
0.024 0.0430769 0
0.03 0.0430769 0
0.024 0.0492308 0
0.03 0.0492308 0
0 0.0492308 0
0.006 0.0492308 0
0 0.0553846 0
0.006 0.0553846 0
0.006 0.0492308 0
0.012 0.0492308 0
0.006 0.0553846 0
0.012 0.0553846 0
0.012 0.0492308 0
0.018 0.0492308 0
0.012 0.0553846 0
0.018 0.0553846 0
0.018 0.0492308 0
0.024 0.0492308 0
0.018 0.0553846 0
0.024 0.0553846 0
0.024 0.0492308 0
0.03 0.0492308 0
0.024 0.0553846 0
0.03 0.0553846 0
0 0.0553846 0
0.006 0.0553846 0
0 0.0615385 0
0.006 0.0615385 0
0.006 0.0553846 0
0.012 0.0553846 0
0.006 0.0615385 0
0.012 0.0615385 0
0.012 0.0553846 0
0.018 0.0553846 0
0.012 0.0615385 0
0.018 0.0615385 0
0.018 0.0553846 0
0.024 0.0553846 0
0.018 0.0615385 0
0.024 0.0615385 0
0.024 0.0553846 0
0.03 0.0553846 0
0.024 0.0615385 0
0.03 0.0615385 0
0 0.0615385 0
0.006 0.0615385 0
0 0.0676923 0
0.006 0.0676923 0
0.006 0.0615385 0
0.012 0.0615385 0
0.006 0.0676923 0
0.012 0.0676923 0
0.012 0.0615385 0
0.018 0.0615385 0
0.012 0.0676923 0
0.018 0.0676923 0
0.018 0.0615385 0
0.024 0.0615385 0
0.018 0.0676923 0
0.024 0.0676923 0
0.024 0.0615385 0
0.03 0.0615385 0
0.024 0.0676923 0
0.03 0.0676923 0
0 0.0676923 0
0.006 0.0676923 0
0 0.0738462 0
0.006 0.0738462 0
0.006 0.0676923 0
0.012 0.0676923 0
0.006 0.0738462 0
0.012 0.0738462 0
0.012 0.0676923 0
0.018 0.0676923 0
0.012 0.0738462 0
0.018 0.0738462 0
0.018 0.0676923 0
0.024 0.0676923 0
0.018 0.0738462 0
0.024 0.0738462 0
0.024 0.0676923 0
0.03 0.0676923 0
0.024 0.0738462 0
0.03 0.0738462 0
0 0.0738462 0
0.006 0.0738462 0
0 0.08 0
0.006 0.08 0
0.006 0.0738462 0
0.012 0.0738462 0
0.006 0.08 0
0.012 0.08 0
0.012 0.0738462 0
0.018 0.0738462 0
0.012 0.08 0
0.018 0.08 0
0.018 0.0738462 0
0.024 0.0738462 0
0.018 0.08 0
0.024 0.08 0
0.024 0.0738462 0
0.03 0.0738462 0
0.024 0.08 0
0.03 0.08 0

CELLS 65 325
4	0	1	3	2
4	4	5	7	6
4	8	9	11	10
4	12	13	15	14
4	16	17	19	18
4	20	21	23	22
4	24	25	27	26
4	28	29	31	30
4	32	33	35	34
4	36	37	39	38
4	40	41	43	42
4	44	45	47	46
4	48	49	51	50
4	52	53	55	54
4	56	57	59	58
4	60	61	63	62
4	64	65	67	66
4	68	69	71	70
4	72	73	75	74
4	76	77	79	78
4	80	81	83	82
4	84	85	87	86
4	88	89	91	90
4	92	93	95	94
4	96	97	99	98
4	100	101	103	102
4	104	105	107	106
4	108	109	111	110
4	112	113	115	114
4	116	117	119	118
4	120	121	123	122
4	124	125	127	126
4	128	129	131	130
4	132	133	135	134
4	136	137	139	138
4	140	141	143	142
4	144	145	147	146
4	148	149	151	150
4	152	153	155	154
4	156	157	159	158
4	160	161	163	162
4	164	165	167	166
4	168	169	171	170
4	172	173	175	174
4	176	177	179	178
4	180	181	183	182
4	184	185	187	186
4	188	189	191	190
4	192	193	195	194
4	196	197	199	198
4	200	201	203	202
4	204	205	207	206
4	208	209	211	210
4	212	213	215	214
4	216	217	219	218
4	220	221	223	222
4	224	225	227	226
4	228	229	231	230
4	232	233	235	234
4	236	237	239	238
4	240	241	243	242
4	244	245	247	246
4	248	249	251	250
4	252	253	255	254
4	256	257	259	258

CELL_TYPES 65
 9 9 9 9 9 9 9 9 9 9 9 9 9 9 9 9 9 9 9 9 9 9 9 9 9 9 9 9 9 9 9 9 9 9 9 9 9 9 9 9 9 9 9 9 9 9 9 9 9 9 9 9 9 9 9 9 9 9 9 9 9 9 9 9 9
POINT_DATA 260
SCALARS D double 1
LOOKUP_TABLE default
300 300.6 301.567 301.686 300.6 301.2 301.686 302.025 301.2 301.8 302.025 302.4 301.8 302.4 302.4 302.738 302.4 303 302.738 302.857 301.567 301.686 302.592 302.657 301.686 302.025 302.657 302.822 302.025 302.4 302.822 303.027 302.4 302.738 303.027 303.192 302.738 302.857 303.192 303.257 302.592 302.657 303.466 303.498 302.657 302.822 303.498 303.584 302.822 303.027 303.584 303.689 303.027 303.192 303.689 303.775 303.192 303.257 303.775 303.807 303.466 303.498 304.26 304.277 303.498 303.584 304.277 304.321 303.584 303.689 304.321 304.376 303.689 303.775 304.376 304.421 303.775 303.807 304.421 304.438 304.26 304.277 305.012 305.021 304.277 304.321 305.021 305.046 304.321 304.376 305.046 305.076 304.376 304.421 305.076 305.101 304.421 304.438 305.101 305.11 305.012 305.021 305.742 305.748 305.021 305.046 305.748 305.764 305.046 305.076 305.764 305.783 305.076 305.101 305.783 305.799 305.101 305.11 305.799 305.805 305.742 305.748 306.457 306.462 305.748 305.764 306.462 306.477 305.764 305.783 306.477 306.494 305.783 305.799 306.494 306.509 305.799 305.805 306.509 306.514 306.457 306.462 307.159 307.166 306.462 306.477 307.166 307.186 306.477 306.494 307.186 307.21 306.494 306.509 307.21 307.23 306.509 306.514 307.23 307.237 307.159 307.166 307.843 307.855 307.166 307.186 307.855 307.889 307.186 307.21 307.889 307.93 307.21 307.23 307.93 307.965 307.23 307.237 307.965 307.978 307.843 307.855 308.497 308.52 307.855 307.889 308.52 308.581 307.889 307.93 308.581 308.659 307.93 307.965 308.659 308.727 307.965 307.978 308.727 308.753 308.497 308.52 309.1 309.139 308.52 308.581 309.139 309.248 308.581 308.659 309.248 309.401 308.659 308.727 309.401 309.537 308.727 308.753 309.537 309.595 309.1 309.139 309.617 309.678 309.139 309.248 309.678 309.859 309.248 309.401 309.859 310.138 309.401 309.537 310.138 310.462 309.537 309.595 310.462 310.577 309.617 309.678 310 310.089 309.678 309.859 310.089 310.357 309.859 310.138 310.357 310.804 310.138 310.462 310.804 311.428 310.462 310.577 311.428 312.232 
