# vtk DataFile Version 3.0
#This file was generated by the deal.II library on 2015/6/9 at 15:34:38
ASCII
DATASET UNSTRUCTURED_GRID

POINTS 20 double
0 0 0
0.01 0 0
0.01 0 0
0.02 0 0
0.02 0 0
0.03 0 0
0.03 0 0
0.04 0 0
0.04 0 0
0.05 0 0
0.05 0 0
0.06 0 0
0.06 0 0
0.07 0 0
0.07 0 0
0.08 0 0
0.08 0 0
0.09 0 0
0.09 0 0
0.1 0 0

CELLS 10 30
2	0	1
2	2	3
2	4	5
2	6	7
2	8	9
2	10	11
2	12	13
2	14	15
2	16	17
2	18	19

CELL_TYPES 10
 3 3 3 3 3 3 3 3 3 3
POINT_DATA 20
VECTORS u double
0 0 0
0.0001165 0 0
0.0001165 0 0
0.000232 0 0
0.000232 0 0
0.0003455 0 0
0.0003455 0 0
0.000456 0 0
0.000456 0 0
0.0005625 0 0
0.0005625 0 0
0.000664 0 0
0.000664 0 0
0.0007595 0 0
0.0007595 0 0
0.000848 0 0
0.000848 0 0
0.0009285 0 0
0.0009285 0 0
0.001 0 0
