# vtk DataFile Version 3.0
#This file was generated by the deal.II library on 2015/6/9 at 15:51: 9
ASCII
DATASET UNSTRUCTURED_GRID

POINTS 20 double
0 0 0
0.01 0 0
0.01 0 0
0.02 0 0
0.02 0 0
0.03 0 0
0.03 0 0
0.04 0 0
0.04 0 0
0.05 0 0
0.05 0 0
0.06 0 0
0.06 0 0
0.07 0 0
0.07 0 0
0.08 0 0
0.08 0 0
0.09 0 0
0.09 0 0
0.1 0 0

CELLS 10 30
2	0	1
2	2	3
2	4	5
2	6	7
2	8	9
2	10	11
2	12	13
2	14	15
2	16	17
2	18	19

CELL_TYPES 10
 3 3 3 3 3 3 3 3 3 3
POINT_DATA 20
VECTORS u double
0 0 0
0.00104983 0 0
0.00104983 0 0
0.00209867 0 0
0.00209867 0 0
0.0031455 0 0
0.0031455 0 0
0.00418933 0 0
0.00418933 0 0
0.00522917 0 0
0.00522917 0 0
0.006264 0 0
0.006264 0 0
0.00729283 0 0
0.00729283 0 0
0.00831467 0 0
0.00831467 0 0
0.0093285 0 0
0.0093285 0 0
0.0103333 0 0
