# vtk DataFile Version 3.0
#This file was generated by the deal.II library on 2015/6/9 at 16: 2:23
ASCII
DATASET UNSTRUCTURED_GRID

POINTS 1000 double
0 0 0
0.2 0 0
0 0.2 0
0.2 0.2 0
0 0 0.2
0.2 0 0.2
0 0.2 0.2
0.2 0.2 0.2
0.2 0 0
0.4 0 0
0.2 0.2 0
0.4 0.2 0
0.2 0 0.2
0.4 0 0.2
0.2 0.2 0.2
0.4 0.2 0.2
0.4 0 0
0.6 0 0
0.4 0.2 0
0.6 0.2 0
0.4 0 0.2
0.6 0 0.2
0.4 0.2 0.2
0.6 0.2 0.2
0.6 0 0
0.8 0 0
0.6 0.2 0
0.8 0.2 0
0.6 0 0.2
0.8 0 0.2
0.6 0.2 0.2
0.8 0.2 0.2
0.8 0 0
1 0 0
0.8 0.2 0
1 0.2 0
0.8 0 0.2
1 0 0.2
0.8 0.2 0.2
1 0.2 0.2
0 0.2 0
0.2 0.2 0
0 0.4 0
0.2 0.4 0
0 0.2 0.2
0.2 0.2 0.2
0 0.4 0.2
0.2 0.4 0.2
0.2 0.2 0
0.4 0.2 0
0.2 0.4 0
0.4 0.4 0
0.2 0.2 0.2
0.4 0.2 0.2
0.2 0.4 0.2
0.4 0.4 0.2
0.4 0.2 0
0.6 0.2 0
0.4 0.4 0
0.6 0.4 0
0.4 0.2 0.2
0.6 0.2 0.2
0.4 0.4 0.2
0.6 0.4 0.2
0.6 0.2 0
0.8 0.2 0
0.6 0.4 0
0.8 0.4 0
0.6 0.2 0.2
0.8 0.2 0.2
0.6 0.4 0.2
0.8 0.4 0.2
0.8 0.2 0
1 0.2 0
0.8 0.4 0
1 0.4 0
0.8 0.2 0.2
1 0.2 0.2
0.8 0.4 0.2
1 0.4 0.2
0 0.4 0
0.2 0.4 0
0 0.6 0
0.2 0.6 0
0 0.4 0.2
0.2 0.4 0.2
0 0.6 0.2
0.2 0.6 0.2
0.2 0.4 0
0.4 0.4 0
0.2 0.6 0
0.4 0.6 0
0.2 0.4 0.2
0.4 0.4 0.2
0.2 0.6 0.2
0.4 0.6 0.2
0.4 0.4 0
0.6 0.4 0
0.4 0.6 0
0.6 0.6 0
0.4 0.4 0.2
0.6 0.4 0.2
0.4 0.6 0.2
0.6 0.6 0.2
0.6 0.4 0
0.8 0.4 0
0.6 0.6 0
0.8 0.6 0
0.6 0.4 0.2
0.8 0.4 0.2
0.6 0.6 0.2
0.8 0.6 0.2
0.8 0.4 0
1 0.4 0
0.8 0.6 0
1 0.6 0
0.8 0.4 0.2
1 0.4 0.2
0.8 0.6 0.2
1 0.6 0.2
0 0.6 0
0.2 0.6 0
0 0.8 0
0.2 0.8 0
0 0.6 0.2
0.2 0.6 0.2
0 0.8 0.2
0.2 0.8 0.2
0.2 0.6 0
0.4 0.6 0
0.2 0.8 0
0.4 0.8 0
0.2 0.6 0.2
0.4 0.6 0.2
0.2 0.8 0.2
0.4 0.8 0.2
0.4 0.6 0
0.6 0.6 0
0.4 0.8 0
0.6 0.8 0
0.4 0.6 0.2
0.6 0.6 0.2
0.4 0.8 0.2
0.6 0.8 0.2
0.6 0.6 0
0.8 0.6 0
0.6 0.8 0
0.8 0.8 0
0.6 0.6 0.2
0.8 0.6 0.2
0.6 0.8 0.2
0.8 0.8 0.2
0.8 0.6 0
1 0.6 0
0.8 0.8 0
1 0.8 0
0.8 0.6 0.2
1 0.6 0.2
0.8 0.8 0.2
1 0.8 0.2
0 0.8 0
0.2 0.8 0
0 1 0
0.2 1 0
0 0.8 0.2
0.2 0.8 0.2
0 1 0.2
0.2 1 0.2
0.2 0.8 0
0.4 0.8 0
0.2 1 0
0.4 1 0
0.2 0.8 0.2
0.4 0.8 0.2
0.2 1 0.2
0.4 1 0.2
0.4 0.8 0
0.6 0.8 0
0.4 1 0
0.6 1 0
0.4 0.8 0.2
0.6 0.8 0.2
0.4 1 0.2
0.6 1 0.2
0.6 0.8 0
0.8 0.8 0
0.6 1 0
0.8 1 0
0.6 0.8 0.2
0.8 0.8 0.2
0.6 1 0.2
0.8 1 0.2
0.8 0.8 0
1 0.8 0
0.8 1 0
1 1 0
0.8 0.8 0.2
1 0.8 0.2
0.8 1 0.2
1 1 0.2
0 0 0.2
0.2 0 0.2
0 0.2 0.2
0.2 0.2 0.2
0 0 0.4
0.2 0 0.4
0 0.2 0.4
0.2 0.2 0.4
0.2 0 0.2
0.4 0 0.2
0.2 0.2 0.2
0.4 0.2 0.2
0.2 0 0.4
0.4 0 0.4
0.2 0.2 0.4
0.4 0.2 0.4
0.4 0 0.2
0.6 0 0.2
0.4 0.2 0.2
0.6 0.2 0.2
0.4 0 0.4
0.6 0 0.4
0.4 0.2 0.4
0.6 0.2 0.4
0.6 0 0.2
0.8 0 0.2
0.6 0.2 0.2
0.8 0.2 0.2
0.6 0 0.4
0.8 0 0.4
0.6 0.2 0.4
0.8 0.2 0.4
0.8 0 0.2
1 0 0.2
0.8 0.2 0.2
1 0.2 0.2
0.8 0 0.4
1 0 0.4
0.8 0.2 0.4
1 0.2 0.4
0 0.2 0.2
0.2 0.2 0.2
0 0.4 0.2
0.2 0.4 0.2
0 0.2 0.4
0.2 0.2 0.4
0 0.4 0.4
0.2 0.4 0.4
0.2 0.2 0.2
0.4 0.2 0.2
0.2 0.4 0.2
0.4 0.4 0.2
0.2 0.2 0.4
0.4 0.2 0.4
0.2 0.4 0.4
0.4 0.4 0.4
0.4 0.2 0.2
0.6 0.2 0.2
0.4 0.4 0.2
0.6 0.4 0.2
0.4 0.2 0.4
0.6 0.2 0.4
0.4 0.4 0.4
0.6 0.4 0.4
0.6 0.2 0.2
0.8 0.2 0.2
0.6 0.4 0.2
0.8 0.4 0.2
0.6 0.2 0.4
0.8 0.2 0.4
0.6 0.4 0.4
0.8 0.4 0.4
0.8 0.2 0.2
1 0.2 0.2
0.8 0.4 0.2
1 0.4 0.2
0.8 0.2 0.4
1 0.2 0.4
0.8 0.4 0.4
1 0.4 0.4
0 0.4 0.2
0.2 0.4 0.2
0 0.6 0.2
0.2 0.6 0.2
0 0.4 0.4
0.2 0.4 0.4
0 0.6 0.4
0.2 0.6 0.4
0.2 0.4 0.2
0.4 0.4 0.2
0.2 0.6 0.2
0.4 0.6 0.2
0.2 0.4 0.4
0.4 0.4 0.4
0.2 0.6 0.4
0.4 0.6 0.4
0.4 0.4 0.2
0.6 0.4 0.2
0.4 0.6 0.2
0.6 0.6 0.2
0.4 0.4 0.4
0.6 0.4 0.4
0.4 0.6 0.4
0.6 0.6 0.4
0.6 0.4 0.2
0.8 0.4 0.2
0.6 0.6 0.2
0.8 0.6 0.2
0.6 0.4 0.4
0.8 0.4 0.4
0.6 0.6 0.4
0.8 0.6 0.4
0.8 0.4 0.2
1 0.4 0.2
0.8 0.6 0.2
1 0.6 0.2
0.8 0.4 0.4
1 0.4 0.4
0.8 0.6 0.4
1 0.6 0.4
0 0.6 0.2
0.2 0.6 0.2
0 0.8 0.2
0.2 0.8 0.2
0 0.6 0.4
0.2 0.6 0.4
0 0.8 0.4
0.2 0.8 0.4
0.2 0.6 0.2
0.4 0.6 0.2
0.2 0.8 0.2
0.4 0.8 0.2
0.2 0.6 0.4
0.4 0.6 0.4
0.2 0.8 0.4
0.4 0.8 0.4
0.4 0.6 0.2
0.6 0.6 0.2
0.4 0.8 0.2
0.6 0.8 0.2
0.4 0.6 0.4
0.6 0.6 0.4
0.4 0.8 0.4
0.6 0.8 0.4
0.6 0.6 0.2
0.8 0.6 0.2
0.6 0.8 0.2
0.8 0.8 0.2
0.6 0.6 0.4
0.8 0.6 0.4
0.6 0.8 0.4
0.8 0.8 0.4
0.8 0.6 0.2
1 0.6 0.2
0.8 0.8 0.2
1 0.8 0.2
0.8 0.6 0.4
1 0.6 0.4
0.8 0.8 0.4
1 0.8 0.4
0 0.8 0.2
0.2 0.8 0.2
0 1 0.2
0.2 1 0.2
0 0.8 0.4
0.2 0.8 0.4
0 1 0.4
0.2 1 0.4
0.2 0.8 0.2
0.4 0.8 0.2
0.2 1 0.2
0.4 1 0.2
0.2 0.8 0.4
0.4 0.8 0.4
0.2 1 0.4
0.4 1 0.4
0.4 0.8 0.2
0.6 0.8 0.2
0.4 1 0.2
0.6 1 0.2
0.4 0.8 0.4
0.6 0.8 0.4
0.4 1 0.4
0.6 1 0.4
0.6 0.8 0.2
0.8 0.8 0.2
0.6 1 0.2
0.8 1 0.2
0.6 0.8 0.4
0.8 0.8 0.4
0.6 1 0.4
0.8 1 0.4
0.8 0.8 0.2
1 0.8 0.2
0.8 1 0.2
1 1 0.2
0.8 0.8 0.4
1 0.8 0.4
0.8 1 0.4
1 1 0.4
0 0 0.4
0.2 0 0.4
0 0.2 0.4
0.2 0.2 0.4
0 0 0.6
0.2 0 0.6
0 0.2 0.6
0.2 0.2 0.6
0.2 0 0.4
0.4 0 0.4
0.2 0.2 0.4
0.4 0.2 0.4
0.2 0 0.6
0.4 0 0.6
0.2 0.2 0.6
0.4 0.2 0.6
0.4 0 0.4
0.6 0 0.4
0.4 0.2 0.4
0.6 0.2 0.4
0.4 0 0.6
0.6 0 0.6
0.4 0.2 0.6
0.6 0.2 0.6
0.6 0 0.4
0.8 0 0.4
0.6 0.2 0.4
0.8 0.2 0.4
0.6 0 0.6
0.8 0 0.6
0.6 0.2 0.6
0.8 0.2 0.6
0.8 0 0.4
1 0 0.4
0.8 0.2 0.4
1 0.2 0.4
0.8 0 0.6
1 0 0.6
0.8 0.2 0.6
1 0.2 0.6
0 0.2 0.4
0.2 0.2 0.4
0 0.4 0.4
0.2 0.4 0.4
0 0.2 0.6
0.2 0.2 0.6
0 0.4 0.6
0.2 0.4 0.6
0.2 0.2 0.4
0.4 0.2 0.4
0.2 0.4 0.4
0.4 0.4 0.4
0.2 0.2 0.6
0.4 0.2 0.6
0.2 0.4 0.6
0.4 0.4 0.6
0.4 0.2 0.4
0.6 0.2 0.4
0.4 0.4 0.4
0.6 0.4 0.4
0.4 0.2 0.6
0.6 0.2 0.6
0.4 0.4 0.6
0.6 0.4 0.6
0.6 0.2 0.4
0.8 0.2 0.4
0.6 0.4 0.4
0.8 0.4 0.4
0.6 0.2 0.6
0.8 0.2 0.6
0.6 0.4 0.6
0.8 0.4 0.6
0.8 0.2 0.4
1 0.2 0.4
0.8 0.4 0.4
1 0.4 0.4
0.8 0.2 0.6
1 0.2 0.6
0.8 0.4 0.6
1 0.4 0.6
0 0.4 0.4
0.2 0.4 0.4
0 0.6 0.4
0.2 0.6 0.4
0 0.4 0.6
0.2 0.4 0.6
0 0.6 0.6
0.2 0.6 0.6
0.2 0.4 0.4
0.4 0.4 0.4
0.2 0.6 0.4
0.4 0.6 0.4
0.2 0.4 0.6
0.4 0.4 0.6
0.2 0.6 0.6
0.4 0.6 0.6
0.4 0.4 0.4
0.6 0.4 0.4
0.4 0.6 0.4
0.6 0.6 0.4
0.4 0.4 0.6
0.6 0.4 0.6
0.4 0.6 0.6
0.6 0.6 0.6
0.6 0.4 0.4
0.8 0.4 0.4
0.6 0.6 0.4
0.8 0.6 0.4
0.6 0.4 0.6
0.8 0.4 0.6
0.6 0.6 0.6
0.8 0.6 0.6
0.8 0.4 0.4
1 0.4 0.4
0.8 0.6 0.4
1 0.6 0.4
0.8 0.4 0.6
1 0.4 0.6
0.8 0.6 0.6
1 0.6 0.6
0 0.6 0.4
0.2 0.6 0.4
0 0.8 0.4
0.2 0.8 0.4
0 0.6 0.6
0.2 0.6 0.6
0 0.8 0.6
0.2 0.8 0.6
0.2 0.6 0.4
0.4 0.6 0.4
0.2 0.8 0.4
0.4 0.8 0.4
0.2 0.6 0.6
0.4 0.6 0.6
0.2 0.8 0.6
0.4 0.8 0.6
0.4 0.6 0.4
0.6 0.6 0.4
0.4 0.8 0.4
0.6 0.8 0.4
0.4 0.6 0.6
0.6 0.6 0.6
0.4 0.8 0.6
0.6 0.8 0.6
0.6 0.6 0.4
0.8 0.6 0.4
0.6 0.8 0.4
0.8 0.8 0.4
0.6 0.6 0.6
0.8 0.6 0.6
0.6 0.8 0.6
0.8 0.8 0.6
0.8 0.6 0.4
1 0.6 0.4
0.8 0.8 0.4
1 0.8 0.4
0.8 0.6 0.6
1 0.6 0.6
0.8 0.8 0.6
1 0.8 0.6
0 0.8 0.4
0.2 0.8 0.4
0 1 0.4
0.2 1 0.4
0 0.8 0.6
0.2 0.8 0.6
0 1 0.6
0.2 1 0.6
0.2 0.8 0.4
0.4 0.8 0.4
0.2 1 0.4
0.4 1 0.4
0.2 0.8 0.6
0.4 0.8 0.6
0.2 1 0.6
0.4 1 0.6
0.4 0.8 0.4
0.6 0.8 0.4
0.4 1 0.4
0.6 1 0.4
0.4 0.8 0.6
0.6 0.8 0.6
0.4 1 0.6
0.6 1 0.6
0.6 0.8 0.4
0.8 0.8 0.4
0.6 1 0.4
0.8 1 0.4
0.6 0.8 0.6
0.8 0.8 0.6
0.6 1 0.6
0.8 1 0.6
0.8 0.8 0.4
1 0.8 0.4
0.8 1 0.4
1 1 0.4
0.8 0.8 0.6
1 0.8 0.6
0.8 1 0.6
1 1 0.6
0 0 0.6
0.2 0 0.6
0 0.2 0.6
0.2 0.2 0.6
0 0 0.8
0.2 0 0.8
0 0.2 0.8
0.2 0.2 0.8
0.2 0 0.6
0.4 0 0.6
0.2 0.2 0.6
0.4 0.2 0.6
0.2 0 0.8
0.4 0 0.8
0.2 0.2 0.8
0.4 0.2 0.8
0.4 0 0.6
0.6 0 0.6
0.4 0.2 0.6
0.6 0.2 0.6
0.4 0 0.8
0.6 0 0.8
0.4 0.2 0.8
0.6 0.2 0.8
0.6 0 0.6
0.8 0 0.6
0.6 0.2 0.6
0.8 0.2 0.6
0.6 0 0.8
0.8 0 0.8
0.6 0.2 0.8
0.8 0.2 0.8
0.8 0 0.6
1 0 0.6
0.8 0.2 0.6
1 0.2 0.6
0.8 0 0.8
1 0 0.8
0.8 0.2 0.8
1 0.2 0.8
0 0.2 0.6
0.2 0.2 0.6
0 0.4 0.6
0.2 0.4 0.6
0 0.2 0.8
0.2 0.2 0.8
0 0.4 0.8
0.2 0.4 0.8
0.2 0.2 0.6
0.4 0.2 0.6
0.2 0.4 0.6
0.4 0.4 0.6
0.2 0.2 0.8
0.4 0.2 0.8
0.2 0.4 0.8
0.4 0.4 0.8
0.4 0.2 0.6
0.6 0.2 0.6
0.4 0.4 0.6
0.6 0.4 0.6
0.4 0.2 0.8
0.6 0.2 0.8
0.4 0.4 0.8
0.6 0.4 0.8
0.6 0.2 0.6
0.8 0.2 0.6
0.6 0.4 0.6
0.8 0.4 0.6
0.6 0.2 0.8
0.8 0.2 0.8
0.6 0.4 0.8
0.8 0.4 0.8
0.8 0.2 0.6
1 0.2 0.6
0.8 0.4 0.6
1 0.4 0.6
0.8 0.2 0.8
1 0.2 0.8
0.8 0.4 0.8
1 0.4 0.8
0 0.4 0.6
0.2 0.4 0.6
0 0.6 0.6
0.2 0.6 0.6
0 0.4 0.8
0.2 0.4 0.8
0 0.6 0.8
0.2 0.6 0.8
0.2 0.4 0.6
0.4 0.4 0.6
0.2 0.6 0.6
0.4 0.6 0.6
0.2 0.4 0.8
0.4 0.4 0.8
0.2 0.6 0.8
0.4 0.6 0.8
0.4 0.4 0.6
0.6 0.4 0.6
0.4 0.6 0.6
0.6 0.6 0.6
0.4 0.4 0.8
0.6 0.4 0.8
0.4 0.6 0.8
0.6 0.6 0.8
0.6 0.4 0.6
0.8 0.4 0.6
0.6 0.6 0.6
0.8 0.6 0.6
0.6 0.4 0.8
0.8 0.4 0.8
0.6 0.6 0.8
0.8 0.6 0.8
0.8 0.4 0.6
1 0.4 0.6
0.8 0.6 0.6
1 0.6 0.6
0.8 0.4 0.8
1 0.4 0.8
0.8 0.6 0.8
1 0.6 0.8
0 0.6 0.6
0.2 0.6 0.6
0 0.8 0.6
0.2 0.8 0.6
0 0.6 0.8
0.2 0.6 0.8
0 0.8 0.8
0.2 0.8 0.8
0.2 0.6 0.6
0.4 0.6 0.6
0.2 0.8 0.6
0.4 0.8 0.6
0.2 0.6 0.8
0.4 0.6 0.8
0.2 0.8 0.8
0.4 0.8 0.8
0.4 0.6 0.6
0.6 0.6 0.6
0.4 0.8 0.6
0.6 0.8 0.6
0.4 0.6 0.8
0.6 0.6 0.8
0.4 0.8 0.8
0.6 0.8 0.8
0.6 0.6 0.6
0.8 0.6 0.6
0.6 0.8 0.6
0.8 0.8 0.6
0.6 0.6 0.8
0.8 0.6 0.8
0.6 0.8 0.8
0.8 0.8 0.8
0.8 0.6 0.6
1 0.6 0.6
0.8 0.8 0.6
1 0.8 0.6
0.8 0.6 0.8
1 0.6 0.8
0.8 0.8 0.8
1 0.8 0.8
0 0.8 0.6
0.2 0.8 0.6
0 1 0.6
0.2 1 0.6
0 0.8 0.8
0.2 0.8 0.8
0 1 0.8
0.2 1 0.8
0.2 0.8 0.6
0.4 0.8 0.6
0.2 1 0.6
0.4 1 0.6
0.2 0.8 0.8
0.4 0.8 0.8
0.2 1 0.8
0.4 1 0.8
0.4 0.8 0.6
0.6 0.8 0.6
0.4 1 0.6
0.6 1 0.6
0.4 0.8 0.8
0.6 0.8 0.8
0.4 1 0.8
0.6 1 0.8
0.6 0.8 0.6
0.8 0.8 0.6
0.6 1 0.6
0.8 1 0.6
0.6 0.8 0.8
0.8 0.8 0.8
0.6 1 0.8
0.8 1 0.8
0.8 0.8 0.6
1 0.8 0.6
0.8 1 0.6
1 1 0.6
0.8 0.8 0.8
1 0.8 0.8
0.8 1 0.8
1 1 0.8
0 0 0.8
0.2 0 0.8
0 0.2 0.8
0.2 0.2 0.8
0 0 1
0.2 0 1
0 0.2 1
0.2 0.2 1
0.2 0 0.8
0.4 0 0.8
0.2 0.2 0.8
0.4 0.2 0.8
0.2 0 1
0.4 0 1
0.2 0.2 1
0.4 0.2 1
0.4 0 0.8
0.6 0 0.8
0.4 0.2 0.8
0.6 0.2 0.8
0.4 0 1
0.6 0 1
0.4 0.2 1
0.6 0.2 1
0.6 0 0.8
0.8 0 0.8
0.6 0.2 0.8
0.8 0.2 0.8
0.6 0 1
0.8 0 1
0.6 0.2 1
0.8 0.2 1
0.8 0 0.8
1 0 0.8
0.8 0.2 0.8
1 0.2 0.8
0.8 0 1
1 0 1
0.8 0.2 1
1 0.2 1
0 0.2 0.8
0.2 0.2 0.8
0 0.4 0.8
0.2 0.4 0.8
0 0.2 1
0.2 0.2 1
0 0.4 1
0.2 0.4 1
0.2 0.2 0.8
0.4 0.2 0.8
0.2 0.4 0.8
0.4 0.4 0.8
0.2 0.2 1
0.4 0.2 1
0.2 0.4 1
0.4 0.4 1
0.4 0.2 0.8
0.6 0.2 0.8
0.4 0.4 0.8
0.6 0.4 0.8
0.4 0.2 1
0.6 0.2 1
0.4 0.4 1
0.6 0.4 1
0.6 0.2 0.8
0.8 0.2 0.8
0.6 0.4 0.8
0.8 0.4 0.8
0.6 0.2 1
0.8 0.2 1
0.6 0.4 1
0.8 0.4 1
0.8 0.2 0.8
1 0.2 0.8
0.8 0.4 0.8
1 0.4 0.8
0.8 0.2 1
1 0.2 1
0.8 0.4 1
1 0.4 1
0 0.4 0.8
0.2 0.4 0.8
0 0.6 0.8
0.2 0.6 0.8
0 0.4 1
0.2 0.4 1
0 0.6 1
0.2 0.6 1
0.2 0.4 0.8
0.4 0.4 0.8
0.2 0.6 0.8
0.4 0.6 0.8
0.2 0.4 1
0.4 0.4 1
0.2 0.6 1
0.4 0.6 1
0.4 0.4 0.8
0.6 0.4 0.8
0.4 0.6 0.8
0.6 0.6 0.8
0.4 0.4 1
0.6 0.4 1
0.4 0.6 1
0.6 0.6 1
0.6 0.4 0.8
0.8 0.4 0.8
0.6 0.6 0.8
0.8 0.6 0.8
0.6 0.4 1
0.8 0.4 1
0.6 0.6 1
0.8 0.6 1
0.8 0.4 0.8
1 0.4 0.8
0.8 0.6 0.8
1 0.6 0.8
0.8 0.4 1
1 0.4 1
0.8 0.6 1
1 0.6 1
0 0.6 0.8
0.2 0.6 0.8
0 0.8 0.8
0.2 0.8 0.8
0 0.6 1
0.2 0.6 1
0 0.8 1
0.2 0.8 1
0.2 0.6 0.8
0.4 0.6 0.8
0.2 0.8 0.8
0.4 0.8 0.8
0.2 0.6 1
0.4 0.6 1
0.2 0.8 1
0.4 0.8 1
0.4 0.6 0.8
0.6 0.6 0.8
0.4 0.8 0.8
0.6 0.8 0.8
0.4 0.6 1
0.6 0.6 1
0.4 0.8 1
0.6 0.8 1
0.6 0.6 0.8
0.8 0.6 0.8
0.6 0.8 0.8
0.8 0.8 0.8
0.6 0.6 1
0.8 0.6 1
0.6 0.8 1
0.8 0.8 1
0.8 0.6 0.8
1 0.6 0.8
0.8 0.8 0.8
1 0.8 0.8
0.8 0.6 1
1 0.6 1
0.8 0.8 1
1 0.8 1
0 0.8 0.8
0.2 0.8 0.8
0 1 0.8
0.2 1 0.8
0 0.8 1
0.2 0.8 1
0 1 1
0.2 1 1
0.2 0.8 0.8
0.4 0.8 0.8
0.2 1 0.8
0.4 1 0.8
0.2 0.8 1
0.4 0.8 1
0.2 1 1
0.4 1 1
0.4 0.8 0.8
0.6 0.8 0.8
0.4 1 0.8
0.6 1 0.8
0.4 0.8 1
0.6 0.8 1
0.4 1 1
0.6 1 1
0.6 0.8 0.8
0.8 0.8 0.8
0.6 1 0.8
0.8 1 0.8
0.6 0.8 1
0.8 0.8 1
0.6 1 1
0.8 1 1
0.8 0.8 0.8
1 0.8 0.8
0.8 1 0.8
1 1 0.8
0.8 0.8 1
1 0.8 1
0.8 1 1
1 1 1

CELLS 125 1125
8	0	1	3	2	4	5	7	6
8	8	9	11	10	12	13	15	14
8	16	17	19	18	20	21	23	22
8	24	25	27	26	28	29	31	30
8	32	33	35	34	36	37	39	38
8	40	41	43	42	44	45	47	46
8	48	49	51	50	52	53	55	54
8	56	57	59	58	60	61	63	62
8	64	65	67	66	68	69	71	70
8	72	73	75	74	76	77	79	78
8	80	81	83	82	84	85	87	86
8	88	89	91	90	92	93	95	94
8	96	97	99	98	100	101	103	102
8	104	105	107	106	108	109	111	110
8	112	113	115	114	116	117	119	118
8	120	121	123	122	124	125	127	126
8	128	129	131	130	132	133	135	134
8	136	137	139	138	140	141	143	142
8	144	145	147	146	148	149	151	150
8	152	153	155	154	156	157	159	158
8	160	161	163	162	164	165	167	166
8	168	169	171	170	172	173	175	174
8	176	177	179	178	180	181	183	182
8	184	185	187	186	188	189	191	190
8	192	193	195	194	196	197	199	198
8	200	201	203	202	204	205	207	206
8	208	209	211	210	212	213	215	214
8	216	217	219	218	220	221	223	222
8	224	225	227	226	228	229	231	230
8	232	233	235	234	236	237	239	238
8	240	241	243	242	244	245	247	246
8	248	249	251	250	252	253	255	254
8	256	257	259	258	260	261	263	262
8	264	265	267	266	268	269	271	270
8	272	273	275	274	276	277	279	278
8	280	281	283	282	284	285	287	286
8	288	289	291	290	292	293	295	294
8	296	297	299	298	300	301	303	302
8	304	305	307	306	308	309	311	310
8	312	313	315	314	316	317	319	318
8	320	321	323	322	324	325	327	326
8	328	329	331	330	332	333	335	334
8	336	337	339	338	340	341	343	342
8	344	345	347	346	348	349	351	350
8	352	353	355	354	356	357	359	358
8	360	361	363	362	364	365	367	366
8	368	369	371	370	372	373	375	374
8	376	377	379	378	380	381	383	382
8	384	385	387	386	388	389	391	390
8	392	393	395	394	396	397	399	398
8	400	401	403	402	404	405	407	406
8	408	409	411	410	412	413	415	414
8	416	417	419	418	420	421	423	422
8	424	425	427	426	428	429	431	430
8	432	433	435	434	436	437	439	438
8	440	441	443	442	444	445	447	446
8	448	449	451	450	452	453	455	454
8	456	457	459	458	460	461	463	462
8	464	465	467	466	468	469	471	470
8	472	473	475	474	476	477	479	478
8	480	481	483	482	484	485	487	486
8	488	489	491	490	492	493	495	494
8	496	497	499	498	500	501	503	502
8	504	505	507	506	508	509	511	510
8	512	513	515	514	516	517	519	518
8	520	521	523	522	524	525	527	526
8	528	529	531	530	532	533	535	534
8	536	537	539	538	540	541	543	542
8	544	545	547	546	548	549	551	550
8	552	553	555	554	556	557	559	558
8	560	561	563	562	564	565	567	566
8	568	569	571	570	572	573	575	574
8	576	577	579	578	580	581	583	582
8	584	585	587	586	588	589	591	590
8	592	593	595	594	596	597	599	598
8	600	601	603	602	604	605	607	606
8	608	609	611	610	612	613	615	614
8	616	617	619	618	620	621	623	622
8	624	625	627	626	628	629	631	630
8	632	633	635	634	636	637	639	638
8	640	641	643	642	644	645	647	646
8	648	649	651	650	652	653	655	654
8	656	657	659	658	660	661	663	662
8	664	665	667	666	668	669	671	670
8	672	673	675	674	676	677	679	678
8	680	681	683	682	684	685	687	686
8	688	689	691	690	692	693	695	694
8	696	697	699	698	700	701	703	702
8	704	705	707	706	708	709	711	710
8	712	713	715	714	716	717	719	718
8	720	721	723	722	724	725	727	726
8	728	729	731	730	732	733	735	734
8	736	737	739	738	740	741	743	742
8	744	745	747	746	748	749	751	750
8	752	753	755	754	756	757	759	758
8	760	761	763	762	764	765	767	766
8	768	769	771	770	772	773	775	774
8	776	777	779	778	780	781	783	782
8	784	785	787	786	788	789	791	790
8	792	793	795	794	796	797	799	798
8	800	801	803	802	804	805	807	806
8	808	809	811	810	812	813	815	814
8	816	817	819	818	820	821	823	822
8	824	825	827	826	828	829	831	830
8	832	833	835	834	836	837	839	838
8	840	841	843	842	844	845	847	846
8	848	849	851	850	852	853	855	854
8	856	857	859	858	860	861	863	862
8	864	865	867	866	868	869	871	870
8	872	873	875	874	876	877	879	878
8	880	881	883	882	884	885	887	886
8	888	889	891	890	892	893	895	894
8	896	897	899	898	900	901	903	902
8	904	905	907	906	908	909	911	910
8	912	913	915	914	916	917	919	918
8	920	921	923	922	924	925	927	926
8	928	929	931	930	932	933	935	934
8	936	937	939	938	940	941	943	942
8	944	945	947	946	948	949	951	950
8	952	953	955	954	956	957	959	958
8	960	961	963	962	964	965	967	966
8	968	969	971	970	972	973	975	974
8	976	977	979	978	980	981	983	982
8	984	985	987	986	988	989	991	990
8	992	993	995	994	996	997	999	998

CELL_TYPES 125
 12 12 12 12 12 12 12 12 12 12 12 12 12 12 12 12 12 12 12 12 12 12 12 12 12 12 12 12 12 12 12 12 12 12 12 12 12 12 12 12 12 12 12 12 12 12 12 12 12 12 12 12 12 12 12 12 12 12 12 12 12 12 12 12 12 12 12 12 12 12 12 12 12 12 12 12 12 12 12 12 12 12 12 12 12 12 12 12 12 12 12 12 12 12 12 12 12 12 12 12 12 12 12 12 12 12 12 12 12 12 12 12 12 12 12 12 12 12 12 12 12 12 12 12 12
POINT_DATA 1000
VECTORS u double
0 0 0
0 0 0
0 0 0
0 0 0
0.000139103 2.55629e-05 7.63406e-05
0.000119606 0.000129676 0.000193711
7.20732e-05 1.1501e-05 5.07384e-05
5.22065e-05 6.12608e-05 0.000160582
0 0 0
0 0 0
0 0 0
0 0 0
0.000119606 0.000129676 0.000193711
7.74608e-05 0.000244655 0.000374867
5.22065e-05 6.12608e-05 0.000160582
7.94428e-06 0.000115714 0.000310331
0 0 0
0 0 0
0 0 0
0 0 0
7.74608e-05 0.000244655 0.000374867
-7.23985e-06 0.000356021 0.000561273
7.94428e-06 0.000115714 0.000310331
-7.51238e-05 0.000167944 0.000467508
0 0 0
0 0 0
0 0 0
0 0 0
-7.23985e-06 0.000356021 0.000561273
-0.000157559 0.000453588 0.000756598
-7.51238e-05 0.000167944 0.000467508
-0.000224646 0.000215592 0.000632003
0 0 0
0 0 0
0 0 0
0 0 0
-0.000157559 0.000453588 0.000756598
-0.000441918 0.000555458 0.00102856
-0.000224646 0.000215592 0.000632003
-0.00051119 0.000265663 0.000899571
0 0 0
0 0 0
0 0 0
0 0 0
7.20732e-05 1.1501e-05 5.07384e-05
5.22065e-05 6.12608e-05 0.000160582
5.12017e-05 3.80231e-06 3.47939e-05
3.31069e-05 1.8281e-05 0.000156069
0 0 0
0 0 0
0 0 0
0 0 0
5.22065e-05 6.12608e-05 0.000160582
7.94428e-06 0.000115714 0.000310331
3.31069e-05 1.8281e-05 0.000156069
-1.25863e-05 3.47649e-05 0.000304662
0 0 0
0 0 0
0 0 0
0 0 0
7.94428e-06 0.000115714 0.000310331
-7.51238e-05 0.000167944 0.000467508
-1.25863e-05 3.47649e-05 0.000304662
-9.78326e-05 5.04815e-05 0.000459166
0 0 0
0 0 0
0 0 0
0 0 0
-7.51238e-05 0.000167944 0.000467508
-0.000224646 0.000215592 0.000632003
-9.78326e-05 5.04815e-05 0.000459166
-0.000250551 6.47871e-05 0.00062177
0 0 0
0 0 0
0 0 0
0 0 0
-0.000224646 0.000215592 0.000632003
-0.00051119 0.000265663 0.000899571
-0.000250551 6.47871e-05 0.00062177
-0.000549474 8.08984e-05 0.000901347
0 0 0
0 0 0
0 0 0
0 0 0
5.12017e-05 3.80231e-06 3.47939e-05
3.31069e-05 1.8281e-05 0.000156069
5.12017e-05 -3.80231e-06 3.47939e-05
3.31069e-05 -1.8281e-05 0.000156069
0 0 0
0 0 0
0 0 0
0 0 0
3.31069e-05 1.8281e-05 0.000156069
-1.25863e-05 3.47649e-05 0.000304662
3.31069e-05 -1.8281e-05 0.000156069
-1.25863e-05 -3.47649e-05 0.000304662
0 0 0
0 0 0
0 0 0
0 0 0
-1.25863e-05 3.47649e-05 0.000304662
-9.78326e-05 5.04815e-05 0.000459166
-1.25863e-05 -3.47649e-05 0.000304662
-9.78326e-05 -5.04815e-05 0.000459166
0 0 0
0 0 0
0 0 0
0 0 0
-9.78326e-05 5.04815e-05 0.000459166
-0.000250551 6.47871e-05 0.00062177
-9.78326e-05 -5.04815e-05 0.000459166
-0.000250551 -6.47871e-05 0.00062177
0 0 0
0 0 0
0 0 0
0 0 0
-0.000250551 6.47871e-05 0.00062177
-0.000549474 8.08984e-05 0.000901347
-0.000250551 -6.47871e-05 0.00062177
-0.000549474 -8.08984e-05 0.000901347
0 0 0
0 0 0
0 0 0
0 0 0
5.12017e-05 -3.80231e-06 3.47939e-05
3.31069e-05 -1.8281e-05 0.000156069
7.20732e-05 -1.1501e-05 5.07384e-05
5.22065e-05 -6.12608e-05 0.000160582
0 0 0
0 0 0
0 0 0
0 0 0
3.31069e-05 -1.8281e-05 0.000156069
-1.25863e-05 -3.47649e-05 0.000304662
5.22065e-05 -6.12608e-05 0.000160582
7.94428e-06 -0.000115714 0.000310331
0 0 0
0 0 0
0 0 0
0 0 0
-1.25863e-05 -3.47649e-05 0.000304662
-9.78326e-05 -5.04815e-05 0.000459166
7.94428e-06 -0.000115714 0.000310331
-7.51238e-05 -0.000167944 0.000467508
0 0 0
0 0 0
0 0 0
0 0 0
-9.78326e-05 -5.04815e-05 0.000459166
-0.000250551 -6.47871e-05 0.00062177
-7.51238e-05 -0.000167944 0.000467508
-0.000224646 -0.000215592 0.000632003
0 0 0
0 0 0
0 0 0
0 0 0
-0.000250551 -6.47871e-05 0.00062177
-0.000549474 -8.08984e-05 0.000901347
-0.000224646 -0.000215592 0.000632003
-0.00051119 -0.000265663 0.000899571
0 0 0
0 0 0
0 0 0
0 0 0
7.20732e-05 -1.1501e-05 5.07384e-05
5.22065e-05 -6.12608e-05 0.000160582
0.000139103 -2.55629e-05 7.63406e-05
0.000119606 -0.000129676 0.000193711
0 0 0
0 0 0
0 0 0
0 0 0
5.22065e-05 -6.12608e-05 0.000160582
7.94428e-06 -0.000115714 0.000310331
0.000119606 -0.000129676 0.000193711
7.74608e-05 -0.000244655 0.000374867
0 0 0
0 0 0
0 0 0
0 0 0
7.94428e-06 -0.000115714 0.000310331
-7.51238e-05 -0.000167944 0.000467508
7.74608e-05 -0.000244655 0.000374867
-7.23985e-06 -0.000356021 0.000561273
0 0 0
0 0 0
0 0 0
0 0 0
-7.51238e-05 -0.000167944 0.000467508
-0.000224646 -0.000215592 0.000632003
-7.23985e-06 -0.000356021 0.000561273
-0.000157559 -0.000453588 0.000756598
0 0 0
0 0 0
0 0 0
0 0 0
-0.000224646 -0.000215592 0.000632003
-0.00051119 -0.000265663 0.000899571
-0.000157559 -0.000453588 0.000756598
-0.000441918 -0.000555458 0.00102856
0.000139103 2.55629e-05 7.63406e-05
0.000119606 0.000129676 0.000193711
7.20732e-05 1.1501e-05 5.07384e-05
5.22065e-05 6.12608e-05 0.000160582
-2.96248e-05 1.59214e-05 6.34576e-05
-5.22019e-05 0.000155184 0.000385767
-0.000125848 1.80278e-05 4.67335e-05
-0.000148989 9.34324e-05 0.000366256
0.000119606 0.000129676 0.000193711
7.74608e-05 0.000244655 0.000374867
5.22065e-05 6.12608e-05 0.000160582
7.94428e-06 0.000115714 0.000310331
-5.22019e-05 0.000155184 0.000385767
-0.000132604 0.000294515 0.000740311
-0.000148989 9.34324e-05 0.000366256
-0.000228613 0.000176495 0.000703958
7.74608e-05 0.000244655 0.000374867
-7.23985e-06 0.000356021 0.000561273
7.94428e-06 0.000115714 0.000310331
-7.51238e-05 0.000167944 0.000467508
-0.000132604 0.000294515 0.000740311
-0.000269676 0.000429461 0.00111452
-0.000228613 0.000176495 0.000703958
-0.000364323 0.000256902 0.00105998
-7.23985e-06 0.000356021 0.000561273
-0.000157559 0.000453588 0.000756598
-7.51238e-05 0.000167944 0.000467508
-0.000224646 0.000215592 0.000632003
-0.000269676 0.000429461 0.00111452
-0.000476727 0.000557228 0.00151945
-0.000364323 0.000256902 0.00105998
-0.000574077 0.000331656 0.00144712
-0.000157559 0.000453588 0.000756598
-0.000441918 0.000555458 0.00102856
-0.000224646 0.000215592 0.000632003
-0.00051119 0.000265663 0.000899571
-0.000476727 0.000557228 0.00151945
-0.000724087 0.00067854 0.00193334
-0.000574077 0.000331656 0.00144712
-0.00083826 0.000406498 0.00185849
7.20732e-05 1.1501e-05 5.07384e-05
5.22065e-05 6.12608e-05 0.000160582
5.12017e-05 3.80231e-06 3.47939e-05
3.31069e-05 1.8281e-05 0.000156069
-0.000125848 1.80278e-05 4.67335e-05
-0.000148989 9.34324e-05 0.000366256
-0.000165794 7.21822e-06 2.77387e-05
-0.000188156 2.9979e-05 0.00035254
5.22065e-05 6.12608e-05 0.000160582
7.94428e-06 0.000115714 0.000310331
3.31069e-05 1.8281e-05 0.000156069
-1.25863e-05 3.47649e-05 0.000304662
-0.000148989 9.34324e-05 0.000366256
-0.000228613 0.000176495 0.000703958
-0.000188156 2.9979e-05 0.00035254
-0.000268564 5.61824e-05 0.000683391
7.94428e-06 0.000115714 0.000310331
-7.51238e-05 0.000167944 0.000467508
-1.25863e-05 3.47649e-05 0.000304662
-9.78326e-05 5.04815e-05 0.000459166
-0.000228613 0.000176495 0.000703958
-0.000364323 0.000256902 0.00105998
-0.000268564 5.61824e-05 0.000683391
-0.000406373 8.16266e-05 0.00103005
-7.51238e-05 0.000167944 0.000467508
-0.000224646 0.000215592 0.000632003
-9.78326e-05 5.04815e-05 0.000459166
-0.000250551 6.47871e-05 0.00062177
-0.000364323 0.000256902 0.00105998
-0.000574077 0.000331656 0.00144712
-0.000406373 8.16266e-05 0.00103005
-0.000621553 0.000105731 0.0014114
-0.000224646 0.000215592 0.000632003
-0.00051119 0.000265663 0.000899571
-0.000250551 6.47871e-05 0.00062177
-0.000549474 8.08984e-05 0.000901347
-0.000574077 0.000331656 0.00144712
-0.00083826 0.000406498 0.00185849
-0.000621553 0.000105731 0.0014114
-0.00088977 0.000129853 0.00182709
5.12017e-05 3.80231e-06 3.47939e-05
3.31069e-05 1.8281e-05 0.000156069
5.12017e-05 -3.80231e-06 3.47939e-05
3.31069e-05 -1.8281e-05 0.000156069
-0.000165794 7.21822e-06 2.77387e-05
-0.000188156 2.9979e-05 0.00035254
-0.000165794 -7.21822e-06 2.77387e-05
-0.000188156 -2.9979e-05 0.00035254
3.31069e-05 1.8281e-05 0.000156069
-1.25863e-05 3.47649e-05 0.000304662
3.31069e-05 -1.8281e-05 0.000156069
-1.25863e-05 -3.47649e-05 0.000304662
-0.000188156 2.9979e-05 0.00035254
-0.000268564 5.61824e-05 0.000683391
-0.000188156 -2.9979e-05 0.00035254
-0.000268564 -5.61824e-05 0.000683391
-1.25863e-05 3.47649e-05 0.000304662
-9.78326e-05 5.04815e-05 0.000459166
-1.25863e-05 -3.47649e-05 0.000304662
-9.78326e-05 -5.04815e-05 0.000459166
-0.000268564 5.61824e-05 0.000683391
-0.000406373 8.16266e-05 0.00103005
-0.000268564 -5.61824e-05 0.000683391
-0.000406373 -8.16266e-05 0.00103005
-9.78326e-05 5.04815e-05 0.000459166
-0.000250551 6.47871e-05 0.00062177
-9.78326e-05 -5.04815e-05 0.000459166
-0.000250551 -6.47871e-05 0.00062177
-0.000406373 8.16266e-05 0.00103005
-0.000621553 0.000105731 0.0014114
-0.000406373 -8.16266e-05 0.00103005
-0.000621553 -0.000105731 0.0014114
-0.000250551 6.47871e-05 0.00062177
-0.000549474 8.08984e-05 0.000901347
-0.000250551 -6.47871e-05 0.00062177
-0.000549474 -8.08984e-05 0.000901347
-0.000621553 0.000105731 0.0014114
-0.00088977 0.000129853 0.00182709
-0.000621553 -0.000105731 0.0014114
-0.00088977 -0.000129853 0.00182709
5.12017e-05 -3.80231e-06 3.47939e-05
3.31069e-05 -1.8281e-05 0.000156069
7.20732e-05 -1.1501e-05 5.07384e-05
5.22065e-05 -6.12608e-05 0.000160582
-0.000165794 -7.21822e-06 2.77387e-05
-0.000188156 -2.9979e-05 0.00035254
-0.000125848 -1.80278e-05 4.67335e-05
-0.000148989 -9.34324e-05 0.000366256
3.31069e-05 -1.8281e-05 0.000156069
-1.25863e-05 -3.47649e-05 0.000304662
5.22065e-05 -6.12608e-05 0.000160582
7.94428e-06 -0.000115714 0.000310331
-0.000188156 -2.9979e-05 0.00035254
-0.000268564 -5.61824e-05 0.000683391
-0.000148989 -9.34324e-05 0.000366256
-0.000228613 -0.000176495 0.000703958
-1.25863e-05 -3.47649e-05 0.000304662
-9.78326e-05 -5.04815e-05 0.000459166
7.94428e-06 -0.000115714 0.000310331
-7.51238e-05 -0.000167944 0.000467508
-0.000268564 -5.61824e-05 0.000683391
-0.000406373 -8.16266e-05 0.00103005
-0.000228613 -0.000176495 0.000703958
-0.000364323 -0.000256902 0.00105998
-9.78326e-05 -5.04815e-05 0.000459166
-0.000250551 -6.47871e-05 0.00062177
-7.51238e-05 -0.000167944 0.000467508
-0.000224646 -0.000215592 0.000632003
-0.000406373 -8.16266e-05 0.00103005
-0.000621553 -0.000105731 0.0014114
-0.000364323 -0.000256902 0.00105998
-0.000574077 -0.000331656 0.00144712
-0.000250551 -6.47871e-05 0.00062177
-0.000549474 -8.08984e-05 0.000901347
-0.000224646 -0.000215592 0.000632003
-0.00051119 -0.000265663 0.000899571
-0.000621553 -0.000105731 0.0014114
-0.00088977 -0.000129853 0.00182709
-0.000574077 -0.000331656 0.00144712
-0.00083826 -0.000406498 0.00185849
7.20732e-05 -1.1501e-05 5.07384e-05
5.22065e-05 -6.12608e-05 0.000160582
0.000139103 -2.55629e-05 7.63406e-05
0.000119606 -0.000129676 0.000193711
-0.000125848 -1.80278e-05 4.67335e-05
-0.000148989 -9.34324e-05 0.000366256
-2.96248e-05 -1.59214e-05 6.34576e-05
-5.22019e-05 -0.000155184 0.000385767
5.22065e-05 -6.12608e-05 0.000160582
7.94428e-06 -0.000115714 0.000310331
0.000119606 -0.000129676 0.000193711
7.74608e-05 -0.000244655 0.000374867
-0.000148989 -9.34324e-05 0.000366256
-0.000228613 -0.000176495 0.000703958
-5.22019e-05 -0.000155184 0.000385767
-0.000132604 -0.000294515 0.000740311
7.94428e-06 -0.000115714 0.000310331
-7.51238e-05 -0.000167944 0.000467508
7.74608e-05 -0.000244655 0.000374867
-7.23985e-06 -0.000356021 0.000561273
-0.000228613 -0.000176495 0.000703958
-0.000364323 -0.000256902 0.00105998
-0.000132604 -0.000294515 0.000740311
-0.000269676 -0.000429461 0.00111452
-7.51238e-05 -0.000167944 0.000467508
-0.000224646 -0.000215592 0.000632003
-7.23985e-06 -0.000356021 0.000561273
-0.000157559 -0.000453588 0.000756598
-0.000364323 -0.000256902 0.00105998
-0.000574077 -0.000331656 0.00144712
-0.000269676 -0.000429461 0.00111452
-0.000476727 -0.000557228 0.00151945
-0.000224646 -0.000215592 0.000632003
-0.00051119 -0.000265663 0.000899571
-0.000157559 -0.000453588 0.000756598
-0.000441918 -0.000555458 0.00102856
-0.000574077 -0.000331656 0.00144712
-0.00083826 -0.000406498 0.00185849
-0.000476727 -0.000557228 0.00151945
-0.000724087 -0.00067854 0.00193334
-2.96248e-05 1.59214e-05 6.34576e-05
-5.22019e-05 0.000155184 0.000385767
-0.000125848 1.80278e-05 4.67335e-05
-0.000148989 9.34324e-05 0.000366256
-0.000451231 1.31044e-05 4.54823e-05
-0.000480007 0.000160247 0.000580575
-0.000562073 1.40445e-05 3.69066e-05
-0.000590636 9.85415e-05 0.000572003
-5.22019e-05 0.000155184 0.000385767
-0.000132604 0.000294515 0.000740311
-0.000148989 9.34324e-05 0.000366256
-0.000228613 0.000176495 0.000703958
-0.000480007 0.000160247 0.000580575
-0.000571358 0.000307634 0.00112687
-0.000590636 9.85415e-05 0.000572003
-0.000681484 0.000187369 0.00111151
-0.000132604 0.000294515 0.000740311
-0.000269676 0.000429461 0.00111452
-0.000228613 0.000176495 0.000703958
-0.000364323 0.000256902 0.00105998
-0.000571358 0.000307634 0.00112687
-0.000725941 0.000452972 0.0016939
-0.000681484 0.000187369 0.00111151
-0.000835218 0.000274785 0.00166999
-0.000269676 0.000429461 0.00111452
-0.000476727 0.000557228 0.00151945
-0.000364323 0.000256902 0.00105998
-0.000574077 0.000331656 0.00144712
-0.000725941 0.000452972 0.0016939
-0.000936803 0.000591927 0.00227736
-0.000835218 0.000274785 0.00166999
-0.0010479 0.000358721 0.00224587
-0.000476727 0.000557228 0.00151945
-0.000724087 0.00067854 0.00193334
-0.000574077 0.000331656 0.00144712
-0.00083826 0.000406498 0.00185849
-0.000936803 0.000591927 0.00227736
-0.00119746 0.000733125 0.00285581
-0.0010479 0.000358721 0.00224587
-0.00131425 0.000442751 0.00282103
-0.000125848 1.80278e-05 4.67335e-05
-0.000148989 9.34324e-05 0.000366256
-0.000165794 7.21822e-06 2.77387e-05
-0.000188156 2.9979e-05 0.00035254
-0.000562073 1.40445e-05 3.69066e-05
-0.000590636 9.85415e-05 0.000572003
-0.000612406 6.26313e-06 2.49215e-05
-0.000640671 3.34403e-05 0.000561577
-0.000148989 9.34324e-05 0.000366256
-0.000228613 0.000176495 0.000703958
-0.000188156 2.9979e-05 0.00035254
-0.000268564 5.61824e-05 0.000683391
-0.000590636 9.85415e-05 0.000572003
-0.000681484 0.000187369 0.00111151
-0.000640671 3.34403e-05 0.000561577
-0.000731787 6.30027e-05 0.00109617
-0.000228613 0.000176495 0.000703958
-0.000364323 0.000256902 0.00105998
-0.000268564 5.61824e-05 0.000683391
-0.000406373 8.16266e-05 0.00103005
-0.000681484 0.000187369 0.00111151
-0.000835218 0.000274785 0.00166999
-0.000731787 6.30027e-05 0.00109617
-0.000887025 9.2235e-05 0.00164836
-0.000364323 0.000256902 0.00105998
-0.000574077 0.000331656 0.00144712
-0.000406373 8.16266e-05 0.00103005
-0.000621553 0.000105731 0.0014114
-0.000835218 0.000274785 0.00166999
-0.0010479 0.000358721 0.00224587
-0.000887025 9.2235e-05 0.00164836
-0.00110283 0.000120294 0.00221993
-0.000574077 0.000331656 0.00144712
-0.00083826 0.000406498 0.00185849
-0.000621553 0.000105731 0.0014114
-0.00088977 0.000129853 0.00182709
-0.0010479 0.000358721 0.00224587
-0.00131425 0.000442751 0.00282103