# vtk DataFile Version 3.0
#This file was generated by the deal.II library on 2015/6/9 at 16: 1: 8
ASCII
DATASET UNSTRUCTURED_GRID

POINTS 512 double
0 0 0
0.01 0 0
0 0.01 0
0.01 0.01 0
0 0 0.01
0.01 0 0.01
0 0.01 0.01
0.01 0.01 0.01
0.01 0 0
0.02 0 0
0.01 0.01 0
0.02 0.01 0
0.01 0 0.01
0.02 0 0.01
0.01 0.01 0.01
0.02 0.01 0.01
0.02 0 0
0.03 0 0
0.02 0.01 0
0.03 0.01 0
0.02 0 0.01
0.03 0 0.01
0.02 0.01 0.01
0.03 0.01 0.01
0.03 0 0
0.04 0 0
0.03 0.01 0
0.04 0.01 0
0.03 0 0.01
0.04 0 0.01
0.03 0.01 0.01
0.04 0.01 0.01
0 0.01 0
0.01 0.01 0
0 0.02 0
0.01 0.02 0
0 0.01 0.01
0.01 0.01 0.01
0 0.02 0.01
0.01 0.02 0.01
0.01 0.01 0
0.02 0.01 0
0.01 0.02 0
0.02 0.02 0
0.01 0.01 0.01
0.02 0.01 0.01
0.01 0.02 0.01
0.02 0.02 0.01
0.02 0.01 0
0.03 0.01 0
0.02 0.02 0
0.03 0.02 0
0.02 0.01 0.01
0.03 0.01 0.01
0.02 0.02 0.01
0.03 0.02 0.01
0.03 0.01 0
0.04 0.01 0
0.03 0.02 0
0.04 0.02 0
0.03 0.01 0.01
0.04 0.01 0.01
0.03 0.02 0.01
0.04 0.02 0.01
0 0.02 0
0.01 0.02 0
0 0.03 0
0.01 0.03 0
0 0.02 0.01
0.01 0.02 0.01
0 0.03 0.01
0.01 0.03 0.01
0.01 0.02 0
0.02 0.02 0
0.01 0.03 0
0.02 0.03 0
0.01 0.02 0.01
0.02 0.02 0.01
0.01 0.03 0.01
0.02 0.03 0.01
0.02 0.02 0
0.03 0.02 0
0.02 0.03 0
0.03 0.03 0
0.02 0.02 0.01
0.03 0.02 0.01
0.02 0.03 0.01
0.03 0.03 0.01
0.03 0.02 0
0.04 0.02 0
0.03 0.03 0
0.04 0.03 0
0.03 0.02 0.01
0.04 0.02 0.01
0.03 0.03 0.01
0.04 0.03 0.01
0 0.03 0
0.01 0.03 0
0 0.04 0
0.01 0.04 0
0 0.03 0.01
0.01 0.03 0.01
0 0.04 0.01
0.01 0.04 0.01
0.01 0.03 0
0.02 0.03 0
0.01 0.04 0
0.02 0.04 0
0.01 0.03 0.01
0.02 0.03 0.01
0.01 0.04 0.01
0.02 0.04 0.01
0.02 0.03 0
0.03 0.03 0
0.02 0.04 0
0.03 0.04 0
0.02 0.03 0.01
0.03 0.03 0.01
0.02 0.04 0.01
0.03 0.04 0.01
0.03 0.03 0
0.04 0.03 0
0.03 0.04 0
0.04 0.04 0
0.03 0.03 0.01
0.04 0.03 0.01
0.03 0.04 0.01
0.04 0.04 0.01
0 0.04 0
0.01 0.04 0
0 0.05 0
0.01 0.05 0
0 0.04 0.01
0.01 0.04 0.01
0 0.05 0.01
0.01 0.05 0.01
0.01 0.04 0
0.02 0.04 0
0.01 0.05 0
0.02 0.05 0
0.01 0.04 0.01
0.02 0.04 0.01
0.01 0.05 0.01
0.02 0.05 0.01
0.02 0.04 0
0.03 0.04 0
0.02 0.05 0
0.03 0.05 0
0.02 0.04 0.01
0.03 0.04 0.01
0.02 0.05 0.01
0.03 0.05 0.01
0.03 0.04 0
0.04 0.04 0
0.03 0.05 0
0.04 0.05 0
0.03 0.04 0.01
0.04 0.04 0.01
0.03 0.05 0.01
0.04 0.05 0.01
0 0.05 0
0.01 0.05 0
0 0.06 0
0.01 0.06 0
0 0.05 0.01
0.01 0.05 0.01
0 0.06 0.01
0.01 0.06 0.01
0.01 0.05 0
0.02 0.05 0
0.01 0.06 0
0.02 0.06 0
0.01 0.05 0.01
0.02 0.05 0.01
0.01 0.06 0.01
0.02 0.06 0.01
0.02 0.05 0
0.03 0.05 0
0.02 0.06 0
0.03 0.06 0
0.02 0.05 0.01
0.03 0.05 0.01
0.02 0.06 0.01
0.03 0.06 0.01
0.03 0.05 0
0.04 0.05 0
0.03 0.06 0
0.04 0.06 0
0.03 0.05 0.01
0.04 0.05 0.01
0.03 0.06 0.01
0.04 0.06 0.01
0 0.06 0
0.01 0.06 0
0 0.07 0
0.01 0.07 0
0 0.06 0.01
0.01 0.06 0.01
0 0.07 0.01
0.01 0.07 0.01
0.01 0.06 0
0.02 0.06 0
0.01 0.07 0
0.02 0.07 0
0.01 0.06 0.01
0.02 0.06 0.01
0.01 0.07 0.01
0.02 0.07 0.01
0.02 0.06 0
0.03 0.06 0
0.02 0.07 0
0.03 0.07 0
0.02 0.06 0.01
0.03 0.06 0.01
0.02 0.07 0.01
0.03 0.07 0.01
0.03 0.06 0
0.04 0.06 0
0.03 0.07 0
0.04 0.07 0
0.03 0.06 0.01
0.04 0.06 0.01
0.03 0.07 0.01
0.04 0.07 0.01
0 0.07 0
0.01 0.07 0
0 0.08 0
0.01 0.08 0
0 0.07 0.01
0.01 0.07 0.01
0 0.08 0.01
0.01 0.08 0.01
0.01 0.07 0
0.02 0.07 0
0.01 0.08 0
0.02 0.08 0
0.01 0.07 0.01
0.02 0.07 0.01
0.01 0.08 0.01
0.02 0.08 0.01
0.02 0.07 0
0.03 0.07 0
0.02 0.08 0
0.03 0.08 0
0.02 0.07 0.01
0.03 0.07 0.01
0.02 0.08 0.01
0.03 0.08 0.01
0.03 0.07 0
0.04 0.07 0
0.03 0.08 0
0.04 0.08 0
0.03 0.07 0.01
0.04 0.07 0.01
0.03 0.08 0.01
0.04 0.08 0.01
0 0 0.01
0.01 0 0.01
0 0.01 0.01
0.01 0.01 0.01
0 0 0.02
0.01 0 0.02
0 0.01 0.02
0.01 0.01 0.02
0.01 0 0.01
0.02 0 0.01
0.01 0.01 0.01
0.02 0.01 0.01
0.01 0 0.02
0.02 0 0.02
0.01 0.01 0.02
0.02 0.01 0.02
0.02 0 0.01
0.03 0 0.01
0.02 0.01 0.01
0.03 0.01 0.01
0.02 0 0.02
0.03 0 0.02
0.02 0.01 0.02
0.03 0.01 0.02
0.03 0 0.01
0.04 0 0.01
0.03 0.01 0.01
0.04 0.01 0.01
0.03 0 0.02
0.04 0 0.02
0.03 0.01 0.02
0.04 0.01 0.02
0 0.01 0.01
0.01 0.01 0.01
0 0.02 0.01
0.01 0.02 0.01
0 0.01 0.02
0.01 0.01 0.02
0 0.02 0.02
0.01 0.02 0.02
0.01 0.01 0.01
0.02 0.01 0.01
0.01 0.02 0.01
0.02 0.02 0.01
0.01 0.01 0.02
0.02 0.01 0.02
0.01 0.02 0.02
0.02 0.02 0.02
0.02 0.01 0.01
0.03 0.01 0.01
0.02 0.02 0.01
0.03 0.02 0.01
0.02 0.01 0.02
0.03 0.01 0.02
0.02 0.02 0.02
0.03 0.02 0.02
0.03 0.01 0.01
0.04 0.01 0.01
0.03 0.02 0.01
0.04 0.02 0.01
0.03 0.01 0.02
0.04 0.01 0.02
0.03 0.02 0.02
0.04 0.02 0.02
0 0.02 0.01
0.01 0.02 0.01
0 0.03 0.01
0.01 0.03 0.01
0 0.02 0.02
0.01 0.02 0.02
0 0.03 0.02
0.01 0.03 0.02
0.01 0.02 0.01
0.02 0.02 0.01
0.01 0.03 0.01
0.02 0.03 0.01
0.01 0.02 0.02
0.02 0.02 0.02
0.01 0.03 0.02
0.02 0.03 0.02
0.02 0.02 0.01
0.03 0.02 0.01
0.02 0.03 0.01
0.03 0.03 0.01
0.02 0.02 0.02
0.03 0.02 0.02
0.02 0.03 0.02
0.03 0.03 0.02
0.03 0.02 0.01
0.04 0.02 0.01
0.03 0.03 0.01
0.04 0.03 0.01
0.03 0.02 0.02
0.04 0.02 0.02
0.03 0.03 0.02
0.04 0.03 0.02
0 0.03 0.01
0.01 0.03 0.01
0 0.04 0.01
0.01 0.04 0.01
0 0.03 0.02
0.01 0.03 0.02
0 0.04 0.02
0.01 0.04 0.02
0.01 0.03 0.01
0.02 0.03 0.01
0.01 0.04 0.01
0.02 0.04 0.01
0.01 0.03 0.02
0.02 0.03 0.02
0.01 0.04 0.02
0.02 0.04 0.02
0.02 0.03 0.01
0.03 0.03 0.01
0.02 0.04 0.01
0.03 0.04 0.01
0.02 0.03 0.02
0.03 0.03 0.02
0.02 0.04 0.02
0.03 0.04 0.02
0.03 0.03 0.01
0.04 0.03 0.01
0.03 0.04 0.01
0.04 0.04 0.01
0.03 0.03 0.02
0.04 0.03 0.02
0.03 0.04 0.02
0.04 0.04 0.02
0 0.04 0.01
0.01 0.04 0.01
0 0.05 0.01
0.01 0.05 0.01
0 0.04 0.02
0.01 0.04 0.02
0 0.05 0.02
0.01 0.05 0.02
0.01 0.04 0.01
0.02 0.04 0.01
0.01 0.05 0.01
0.02 0.05 0.01
0.01 0.04 0.02
0.02 0.04 0.02
0.01 0.05 0.02
0.02 0.05 0.02
0.02 0.04 0.01
0.03 0.04 0.01
0.02 0.05 0.01
0.03 0.05 0.01
0.02 0.04 0.02
0.03 0.04 0.02
0.02 0.05 0.02
0.03 0.05 0.02
0.03 0.04 0.01
0.04 0.04 0.01
0.03 0.05 0.01
0.04 0.05 0.01
0.03 0.04 0.02
0.04 0.04 0.02
0.03 0.05 0.02
0.04 0.05 0.02
0 0.05 0.01
0.01 0.05 0.01
0 0.06 0.01
0.01 0.06 0.01
0 0.05 0.02
0.01 0.05 0.02
0 0.06 0.02
0.01 0.06 0.02
0.01 0.05 0.01
0.02 0.05 0.01
0.01 0.06 0.01
0.02 0.06 0.01
0.01 0.05 0.02
0.02 0.05 0.02
0.01 0.06 0.02
0.02 0.06 0.02
0.02 0.05 0.01
0.03 0.05 0.01
0.02 0.06 0.01
0.03 0.06 0.01
0.02 0.05 0.02
0.03 0.05 0.02
0.02 0.06 0.02
0.03 0.06 0.02
0.03 0.05 0.01
0.04 0.05 0.01
0.03 0.06 0.01
0.04 0.06 0.01
0.03 0.05 0.02
0.04 0.05 0.02
0.03 0.06 0.02
0.04 0.06 0.02
0 0.06 0.01
0.01 0.06 0.01
0 0.07 0.01
0.01 0.07 0.01
0 0.06 0.02
0.01 0.06 0.02
0 0.07 0.02
0.01 0.07 0.02
0.01 0.06 0.01
0.02 0.06 0.01
0.01 0.07 0.01
0.02 0.07 0.01
0.01 0.06 0.02
0.02 0.06 0.02
0.01 0.07 0.02
0.02 0.07 0.02
0.02 0.06 0.01
0.03 0.06 0.01
0.02 0.07 0.01
0.03 0.07 0.01
0.02 0.06 0.02
0.03 0.06 0.02
0.02 0.07 0.02
0.03 0.07 0.02
0.03 0.06 0.01
0.04 0.06 0.01
0.03 0.07 0.01
0.04 0.07 0.01
0.03 0.06 0.02
0.04 0.06 0.02
0.03 0.07 0.02
0.04 0.07 0.02
0 0.07 0.01
0.01 0.07 0.01
0 0.08 0.01
0.01 0.08 0.01
0 0.07 0.02
0.01 0.07 0.02
0 0.08 0.02
0.01 0.08 0.02
0.01 0.07 0.01
0.02 0.07 0.01
0.01 0.08 0.01
0.02 0.08 0.01
0.01 0.07 0.02
0.02 0.07 0.02
0.01 0.08 0.02
0.02 0.08 0.02
0.02 0.07 0.01
0.03 0.07 0.01
0.02 0.08 0.01
0.03 0.08 0.01
0.02 0.07 0.02
0.03 0.07 0.02
0.02 0.08 0.02
0.03 0.08 0.02
0.03 0.07 0.01
0.04 0.07 0.01
0.03 0.08 0.01
0.04 0.08 0.01
0.03 0.07 0.02
0.04 0.07 0.02
0.03 0.08 0.02
0.04 0.08 0.02

CELLS 64 576
8	0	1	3	2	4	5	7	6
8	8	9	11	10	12	13	15	14
8	16	17	19	18	20	21	23	22
8	24	25	27	26	28	29	31	30
8	32	33	35	34	36	37	39	38
8	40	41	43	42	44	45	47	46
8	48	49	51	50	52	53	55	54
8	56	57	59	58	60	61	63	62
8	64	65	67	66	68	69	71	70
8	72	73	75	74	76	77	79	78
8	80	81	83	82	84	85	87	86
8	88	89	91	90	92	93	95	94
8	96	97	99	98	100	101	103	102
8	104	105	107	106	108	109	111	110
8	112	113	115	114	116	117	119	118
8	120	121	123	122	124	125	127	126
8	128	129	131	130	132	133	135	134
8	136	137	139	138	140	141	143	142
8	144	145	147	146	148	149	151	150
8	152	153	155	154	156	157	159	158
8	160	161	163	162	164	165	167	166
8	168	169	171	170	172	173	175	174
8	176	177	179	178	180	181	183	182
8	184	185	187	186	188	189	191	190
8	192	193	195	194	196	197	199	198
8	200	201	203	202	204	205	207	206
8	208	209	211	210	212	213	215	214
8	216	217	219	218	220	221	223	222
8	224	225	227	226	228	229	231	230
8	232	233	235	234	236	237	239	238
8	240	241	243	242	244	245	247	246
8	248	249	251	250	252	253	255	254
8	256	257	259	258	260	261	263	262
8	264	265	267	266	268	269	271	270
8	272	273	275	274	276	277	279	278
8	280	281	283	282	284	285	287	286
8	288	289	291	290	292	293	295	294
8	296	297	299	298	300	301	303	302
8	304	305	307	306	308	309	311	310
8	312	313	315	314	316	317	319	318
8	320	321	323	322	324	325	327	326
8	328	329	331	330	332	333	335	334
8	336	337	339	338	340	341	343	342
8	344	345	347	346	348	349	351	350
8	352	353	355	354	356	357	359	358
8	360	361	363	362	364	365	367	366
8	368	369	371	370	372	373	375	374
8	376	377	379	378	380	381	383	382
8	384	385	387	386	388	389	391	390
8	392	393	395	394	396	397	399	398
8	400	401	403	402	404	405	407	406
8	408	409	411	410	412	413	415	414
8	416	417	419	418	420	421	423	422
8	424	425	427	426	428	429	431	430
8	432	433	435	434	436	437	439	438
8	440	441	443	442	444	445	447	446
8	448	449	451	450	452	453	455	454
8	456	457	459	458	460	461	463	462
8	464	465	467	466	468	469	471	470
8	472	473	475	474	476	477	479	478
8	480	481	483	482	484	485	487	486
8	488	489	491	490	492	493	495	494
8	496	497	499	498	500	501	503	502
8	504	505	507	506	508	509	511	510

CELL_TYPES 64
 12 12 12 12 12 12 12 12 12 12 12 12 12 12 12 12 12 12 12 12 12 12 12 12 12 12 12 12 12 12 12 12 12 12 12 12 12 12 12 12 12 12 12 12 12 12 12 12 12 12 12 12 12 12 12 12 12 12 12 12 12 12 12 12
POINT_DATA 512
SCALARS D double 1
LOOKUP_TABLE default
300 304.628 301 304.886 301 304.757 302 305.015 304.628 307.489 304.886 307.718 304.757 307.522 305.015 307.751 307.489 309.653 307.718 309.917 307.522 309.786 307.751 310.05 309.653 310 309.917 311.033 309.786 311.033 310.05 312.067 301 304.886 302 305.609 302 305.015 303 305.738 304.886 307.718 305.609 308.318 305.015 307.751 305.738 308.351 307.718 309.917 308.318 310.655 307.751 310.05 308.351 310.788 309.917 311.033 310.655 312.067 310.05 312.067 310.788 313.1 302 305.609 303 306.482 303 305.738 304 306.611 305.609 308.318 306.482 309.144 305.738 308.351 306.611 309.177 308.318 310.655 309.144 311.545 308.351 310.788 309.177 311.678 310.655 312.067 311.545 313.1 310.788 313.1 311.678 314.133 303 306.482 304 307.413 304 306.611 305 307.542 306.482 309.144 307.413 310.051 306.611 309.177 307.542 310.083 309.144 311.545 310.051 312.492 309.177 311.678 310.083 312.625 311.545 313.1 312.492 314.133 311.678 314.133 312.625 315.167 304 307.413 305 308.343 305 307.542 306 308.472 307.413 310.051 308.343 310.957 307.542 310.083 308.472 310.99 310.051 312.492 310.957 313.439 310.083 312.625 310.99 313.572 312.492 314.133 313.439 315.167 312.625 315.167 313.572 316.2 305 308.343 306 309.216 306 308.472 307 309.345 308.343 310.957 309.216 311.783 308.472 310.99 309.345 311.816 310.957 313.439 311.783 314.328 310.99 313.572 311.816 314.462 313.439 315.167 314.328 316.2 313.572 316.2 314.462 317.233 306 309.216 307 309.939 307 309.345 308 310.069 309.216 311.783 309.939 312.383 309.345 311.816 310.069 312.416 311.783 314.328 312.383 315.067 311.816 314.462 312.416 315.2 314.328 316.2 315.067 317.233 314.462 317.233 315.2 318.267 307 309.939 308 310.198 308 310.069 309 310.327 309.939 312.383 310.198 312.612 310.069 312.416 310.327 312.645 312.383 315.067 312.612 315.331 312.416 315.2 312.645 315.464 315.067 317.233 315.331 318.267 315.2 318.267 315.464 319.3 301 304.757 302 305.015 302 304.886 303 305.144 304.757 307.522 305.015 307.751 304.886 307.555 305.144 307.784 307.522 309.786 307.751 310.05 307.555 309.919 307.784 310.183 309.786 311.033 310.05 312.067 309.919 312.067 310.183 313.1 302 305.015 303 305.738 303 305.144 304 305.867 305.015 307.751 305.738 308.351 305.144 307.784 305.867 308.384 307.751 310.05 308.351 310.788 307.784 310.183 308.384 310.922 310.05 312.067 310.788 313.1 310.183 313.1 310.922 314.133 303 305.738 304 306.611 304 305.867 305 306.741 305.738 308.351 306.611 309.177 305.867 308.384 306.741 309.21 308.351 310.788 309.177 311.678 308.384 310.922 309.21 311.811 310.788 313.1 311.678 314.133 310.922 314.133 311.811 315.167 304 306.611 305 307.542 305 306.741 306 307.671 306.611 309.177 307.542 310.083 306.741 309.21 307.671 310.116 309.177 311.678 310.083 312.625 309.21 311.811 310.116 312.758 311.678 314.133 312.625 315.167 311.811 315.167 312.758 316.2 305 307.542 306 308.472 306 307.671 307 308.601 307.542 310.083 308.472 310.99 307.671 310.116 308.601 311.022 310.083 312.625 310.99 313.572 310.116 312.758 311.022 313.705 312.625 315.167 313.572 316.2 312.758 316.2 313.705 317.233 306 308.472 307 309.345 307 308.601 308 309.474 308.472 310.99 309.345 311.816 308.601 311.022 309.474 311.848 310.99 313.572 311.816 314.462 311.022 313.705 311.848 314.595 313.572 316.2 314.462 317.233 313.705 317.233 314.595 318.267 307 309.345 308 310.069 308 309.474 309 310.198 309.345 311.816 310.069 312.416 309.474 311.848 310.198 312.449 311.816 314.462 312.416 315.2 311.848 314.595 312.449 315.333 314.462 317.233 315.2 318.267 314.595 318.267 315.333 319.3 308 310.069 309 310.327 309 310.198 310 310.456 310.069 312.416 310.327 312.645 310.198 312.449 310.456 312.678 312.416 315.2 312.645 315.464 312.449 315.333 312.678 315.597 315.2 318.267 315.464 319.3 315.333 319.3 315.597 320.333 
